 Output coordinates in a.u. (scale by  1.000000000 to convert to a.u.)

  No.       Tag          Charge          X              Y              Z
 ---- ---------------- ---------- -------------- -------------- --------------
    1 O                    8.0000     0.00000000     0.00000000     0.22143053
    2 H                    1.0000    -1.43042809     0.00000000    -0.88572213
    3 H                    1.0000     1.43042809     0.00000000    -0.88572213

         Total DFT energy =      -76.384916440376

                       DFT Final Molecular Orbital Analysis
                       ------------------------------------

 Vector    1  Occ=2.000000D+00  E=-1.913298D+01  Symmetry=a1

 Vector    2  Occ=2.000000D+00  E=-1.019292D+00  Symmetry=a1

 Vector    3  Occ=2.000000D+00  E=-5.309647D-01  Symmetry=b1

 Vector    4  Occ=2.000000D+00  E=-3.564451D-01  Symmetry=a1

 Vector    5  Occ=2.000000D+00  E=-2.923535D-01  Symmetry=b2

 Vector    6  Occ=0.000000D+00  E= 5.756231D-02  Symmetry=a1

 Vector    7  Occ=0.000000D+00  E= 1.477271D-01  Symmetry=b1

 Vector    8  Occ=0.000000D+00  E= 8.121456D-01  Symmetry=b1

 Vector    9  Occ=0.000000D+00  E= 8.789361D-01  Symmetry=a1

 Vector   10  Occ=0.000000D+00  E= 8.891924D-01  Symmetry=b2

 Vector   11  Occ=0.000000D+00  E= 9.577265D-01  Symmetry=a1

 Vector   12  Occ=0.000000D+00  E= 1.069177D+00  Symmetry=b1

 Vector   13  Occ=0.000000D+00  E= 1.422959D+00  Symmetry=a1

     Multipole analysis of the density
     ---------------------------------

     L   x y z        total         alpha         beta         nuclear
     -   - - -        -----         -----         ----         -------
     0   0 0 0     -0.000000     -5.000000     -5.000000     10.000000

     1   1 0 0     -0.000000     -0.000000     -0.000000      0.000000
     1   0 1 0      0.000000      0.000000      0.000000      0.000000
     1   0 0 1     -0.968009     -0.484005     -0.484005      0.000000

     2   2 0 0     -3.207320     -3.649784     -3.649784      4.092249
     2   1 1 0      0.000000      0.000000      0.000000      0.000000
     2   1 0 1      0.000000      0.000000      0.000000      0.000000
     2   0 2 0     -5.323604     -2.661802     -2.661802      0.000000
     2   0 1 1      0.000000      0.000000      0.000000      0.000000

 Total times  cpu:        0.2s     wall:        0.3s
