 Output coordinates in angstroms (scale by  1.889725989 to convert to a.u.)

  No.       Tag          Charge          X              Y              Z
 ---- ---------------- ---------- -------------- -------------- --------------
    1 H                    1.0000     0.00000000     0.00000000     0.00000000
    2 F                    9.0000     0.00000000     0.00000000     1.00000000

         Total DFT energy =      -98.926222756801

                       DFT Final Molecular Orbital Analysis
                       ------------------------------------

 Vector    1  Occ=2.000000D+00  E=-2.431167D+01

 Vector    2  Occ=2.000000D+00  E=-1.039392D+00

 Vector    3  Occ=2.000000D+00  E=-3.585380D-01

 Vector    4  Occ=2.000000D+00  E=-1.753602D-01

 Vector    5  Occ=2.000000D+00  E=-1.753602D-01

 Vector    6  Occ=0.000000D+00  E= 2.985276D-01

     Multipole analysis of the density
     ---------------------------------

     L   x y z        total         alpha         beta         nuclear
     -   - - -        -----         -----         ----         -------
     0   0 0 0     -0.000000     -5.000000     -5.000000     10.000000

     1   1 0 0      0.000000      0.000000      0.000000      0.000000
     1   0 1 0     -0.000000     -0.000000     -0.000000      0.000000
     1   0 0 1     -0.437889     -8.722711     -8.722711     17.007534

     2   2 0 0     -3.468313     -1.734156     -1.734156      0.000000
     2   1 1 0     -0.000000     -0.000000     -0.000000      0.000000
     2   1 0 1     -0.000000     -0.000000     -0.000000      0.000000
     2   0 2 0     -3.468313     -1.734156     -1.734156      0.000000
     2   0 1 1      0.000000      0.000000      0.000000      0.000000

 Total times  cpu:        0.1s     wall:        0.2s
