 Output coordinates in angstroms (scale by  1.889725989 to convert to a.u.)

  No.       Tag          Charge          X              Y              Z
 ---- ---------------- ---------- -------------- -------------- --------------
    1 H                    1.0000     0.00000000     0.00000000     0.12306241
    2 H                    1.0000    -0.00000000     0.00000000     0.87693759

         Total DFT energy =       -1.157340412357

                       DFT Final Molecular Orbital Analysis
                       ------------------------------------

 Vector    1  Occ=2.000000D+00  E=-3.739578D-01

 Vector    2  Occ=0.000000D+00  E= 9.141656D-02

 Vector    3  Occ=0.000000D+00  E= 6.851942D-01

 Vector    4  Occ=0.000000D+00  E= 1.159488D+00

     Multipole analysis of the density
     ---------------------------------

     L   x y z        total         alpha         beta         nuclear
     -   - - -        -----         -----         ----         -------
     0   0 0 0     -0.000000     -1.000000     -1.000000      2.000000

     1   1 0 0     -0.000000      0.000000      0.000000     -0.000000
     1   0 1 0      0.000000      0.000000      0.000000      0.000000
     1   0 0 1      0.000000     -0.944863     -0.944863      1.889726

     2   2 0 0     -1.474042     -0.737021     -0.737021      0.000000
     2   1 1 0      0.000000      0.000000      0.000000      0.000000
     2   1 0 1     -0.000000      0.000000      0.000000     -0.000000
     2   0 2 0     -1.474042     -0.737021     -0.737021      0.000000
     2   0 1 1      0.000000      0.000000      0.000000      0.000000

 Total times  cpu:        0.1s     wall:        0.2s
