 Output coordinates in a.u. (scale by  1.000000000 to convert to a.u.)

  No.       Tag          Charge          X              Y              Z
 ---- ---------------- ---------- -------------- -------------- --------------
    1 Cl                  17.0000     0.00000000     0.00000000    -0.90442130
    2 Cl                  17.0000     0.00000000     0.00000000     0.90442130

         Total SCF energy =   -914.461029528059

 Vector    8  Occ=2.000000D+00  E=-8.369807D+00  Symmetry=eg

 Vector    9  Occ=2.000000D+00  E=-8.369807D+00  Symmetry=eg

 Vector   10  Occ=2.000000D+00  E=-8.360690D+00  Symmetry=a2u

 Vector   11  Occ=2.000000D+00  E=-1.848315D+00  Symmetry=a1g

 Vector   12  Occ=2.000000D+00  E=-1.031079D+00  Symmetry=eu

 Vector   13  Occ=2.000000D+00  E=-1.031079D+00  Symmetry=eu

 Vector   14  Occ=2.000000D+00  E=-8.853545D-01  Symmetry=a2u

 Vector   15  Occ=2.000000D+00  E=-6.086430D-01  Symmetry=a1g

 Vector   16  Occ=2.000000D+00  E=-2.950231D-01  Symmetry=eg

 Vector   17  Occ=2.000000D+00  E=-2.950231D-01  Symmetry=eg

 Vector   18  Occ=0.000000D+00  E= 3.627839D-01  Symmetry=a1g

 Vector   19  Occ=0.000000D+00  E= 3.645314D-01  Symmetry=a2u

 Vector   20  Occ=0.000000D+00  E= 3.881033D-01  Symmetry=eu

 Vector   21  Occ=0.000000D+00  E= 3.881033D-01  Symmetry=eu

 Vector   22  Occ=0.000000D+00  E= 5.484967D-01  Symmetry=a1g

 Vector   23  Occ=0.000000D+00  E= 6.853794D-01  Symmetry=eg

 Vector   24  Occ=0.000000D+00  E= 6.853794D-01  Symmetry=eg

 Vector   25  Occ=0.000000D+00  E= 7.986294D-01  Symmetry=a2u

 Vector   26  Occ=0.000000D+00  E= 1.232468D+00  Symmetry=a2u

       Multipole analysis of the density wrt the origin
       ------------------------------------------------

     L   x y z        total         open         nuclear
     -   - - -        -----         ----         -------
     0   0 0 0     -0.000000      0.000000     34.000000

     1   1 0 0     -0.000000      0.000000      0.000000
     1   0 1 0     -0.000000      0.000000      0.000000
     1   0 0 1      0.000000      0.000000      0.000000

     2   2 0 0    -16.886270      0.000000      0.000000
     2   1 1 0     -0.000000      0.000000      0.000000
     2   1 0 1      0.000000      0.000000      0.000000
     2   0 2 0    -16.886270      0.000000      0.000000
     2   0 1 1     -0.000000      0.000000      0.000000

 Total times  cpu:        0.2s     wall:        0.3s
