 Output coordinates in a.u. (scale by  1.000000000 to convert to a.u.)

  No.       Tag          Charge          X              Y              Z
 ---- ---------------- ---------- -------------- -------------- --------------
    1 Cl                  17.0000     0.00000000     0.00000000    -0.90442130
    2 Cl                  17.0000     0.00000000     0.00000000     0.90442130

         Total DFT energy =     -915.928777869543

                       DFT Final Molecular Orbital Analysis
                       ------------------------------------

 Vector    1  Occ=2.000000D+00  E=-1.017662D+02  Symmetry=a1g

 Vector    2  Occ=2.000000D+00  E=-1.017661D+02  Symmetry=a2u

 Vector    3  Occ=2.000000D+00  E=-9.995493D+00  Symmetry=a1g

 Vector    4  Occ=2.000000D+00  E=-9.832725D+00  Symmetry=a2u

 Vector    5  Occ=2.000000D+00  E=-7.752894D+00  Symmetry=a1g

 Vector    6  Occ=2.000000D+00  E=-7.592252D+00  Symmetry=eu

 Vector    7  Occ=2.000000D+00  E=-7.592252D+00  Symmetry=eu

 Vector    8  Occ=2.000000D+00  E=-7.554259D+00  Symmetry=eg

 Vector    9  Occ=2.000000D+00  E=-7.554259D+00  Symmetry=eg

 Vector   10  Occ=2.000000D+00  E=-7.544259D+00  Symmetry=a2u

 Vector   11  Occ=2.000000D+00  E=-1.516077D+00  Symmetry=a1g

 Vector   12  Occ=2.000000D+00  E=-8.252212D-01  Symmetry=eu

 Vector   13  Occ=2.000000D+00  E=-8.252212D-01  Symmetry=eu

 Vector   14  Occ=2.000000D+00  E=-6.375803D-01  Symmetry=a2u

 Vector   15  Occ=2.000000D+00  E=-4.465094D-01  Symmetry=a1g

 Vector   16  Occ=2.000000D+00  E=-1.720486D-01  Symmetry=eg

 Vector   17  Occ=2.000000D+00  E=-1.720486D-01  Symmetry=eg

 Vector   18  Occ=0.000000D+00  E= 1.969952D-01  Symmetry=a1g

 Vector   19  Occ=0.000000D+00  E= 2.263556D-01  Symmetry=eu

 Vector   20  Occ=0.000000D+00  E= 2.263556D-01  Symmetry=eu

 Vector   21  Occ=0.000000D+00  E= 2.275657D-01  Symmetry=a2u

 Vector   22  Occ=0.000000D+00  E= 3.684605D-01  Symmetry=a1g

 Vector   23  Occ=0.000000D+00  E= 5.005162D-01  Symmetry=eg

 Vector   24  Occ=0.000000D+00  E= 5.005162D-01  Symmetry=eg

 Vector   25  Occ=0.000000D+00  E= 5.951731D-01  Symmetry=a2u

 Vector   26  Occ=0.000000D+00  E= 9.598421D-01  Symmetry=a2u

     Multipole analysis of the density
     ---------------------------------

     L   x y z        total         alpha         beta         nuclear
     -   - - -        -----         -----         ----         -------
     0   0 0 0     -0.000000    -17.000000    -17.000000     34.000000

     1   1 0 0      0.000000      0.000000      0.000000      0.000000
     1   0 1 0      0.000000      0.000000      0.000000      0.000000
     1   0 0 1      0.000000      0.000000      0.000000      0.000000

     2   2 0 0    -16.824010     -8.412005     -8.412005      0.000000
     2   1 1 0      0.000000      0.000000      0.000000      0.000000
     2   1 0 1      0.000000      0.000000      0.000000      0.000000
     2   0 2 0    -16.824010     -8.412005     -8.412005      0.000000
     2   0 1 1      0.000000      0.000000      0.000000      0.000000

 Total times  cpu:        0.2s     wall:        0.5s
