 Output coordinates in a.u. (scale by  1.000000000 to convert to a.u.)

  No.       Tag          Charge          X              Y              Z
 ---- ---------------- ---------- -------------- -------------- --------------
    1 Cl                  17.0000     0.00000000     0.00000000    -0.75000000
    2 Cl                  17.0000     0.00000000     0.00000000     0.75000000

         Total DFT energy =     -911.886934929227

                       DFT Final Molecular Orbital Analysis
                       ------------------------------------

 Vector    1  Occ=2.000000D+00  E=-1.021298D+02  Symmetry=a2u

 Vector    2  Occ=2.000000D+00  E=-1.021298D+02  Symmetry=a1g

 Vector    3  Occ=2.000000D+00  E=-1.075832D+01  Symmetry=a1g

 Vector    4  Occ=2.000000D+00  E=-1.012145D+01  Symmetry=a2u

 Vector    5  Occ=2.000000D+00  E=-8.257992D+00  Symmetry=a1g

 Vector    6  Occ=2.000000D+00  E=-8.030550D+00  Symmetry=eu

 Vector    7  Occ=2.000000D+00  E=-8.030550D+00  Symmetry=eu

 Vector    8  Occ=2.000000D+00  E=-7.890062D+00  Symmetry=eg

 Vector    9  Occ=2.000000D+00  E=-7.890062D+00  Symmetry=eg

 Vector   10  Occ=2.000000D+00  E=-7.765297D+00  Symmetry=a2u

 Vector   11  Occ=2.000000D+00  E=-1.502585D+00  Symmetry=a1g

 Vector   12  Occ=2.000000D+00  E=-9.542388D-01  Symmetry=eu

 Vector   13  Occ=2.000000D+00  E=-9.542388D-01  Symmetry=eu

 Vector   14  Occ=2.000000D+00  E=-6.368807D-01  Symmetry=a2u

 Vector   15  Occ=2.000000D+00  E=-3.638673D-01  Symmetry=a1g

 Vector   16  Occ=2.000000D+00  E=-1.591826D-01  Symmetry=eg

 Vector   17  Occ=2.000000D+00  E=-1.591826D-01  Symmetry=eg

 Vector   18  Occ=0.000000D+00  E= 1.853506D-01  Symmetry=eu

 Vector   19  Occ=0.000000D+00  E= 1.853506D-01  Symmetry=eu

 Vector   20  Occ=0.000000D+00  E= 2.258075D-01  Symmetry=a1g

 Vector   21  Occ=0.000000D+00  E= 2.488084D-01  Symmetry=a2u

 Vector   22  Occ=0.000000D+00  E= 3.812653D-01  Symmetry=a1g

 Vector   23  Occ=0.000000D+00  E= 4.941309D-01  Symmetry=eg

 Vector   24  Occ=0.000000D+00  E= 4.941309D-01  Symmetry=eg

 Vector   25  Occ=0.000000D+00  E= 6.175897D-01  Symmetry=a2u

 Vector   26  Occ=0.000000D+00  E= 1.164087D+00  Symmetry=a2u

     Multipole analysis of the density
     ---------------------------------

     L   x y z        total         alpha         beta         nuclear
     -   - - -        -----         -----         ----         -------
     0   0 0 0     -0.000000    -17.000000    -17.000000     34.000000

     1   1 0 0     -0.000000     -0.000000     -0.000000      0.000000
     1   0 1 0     -0.000000     -0.000000     -0.000000      0.000000
     1   0 0 1     -0.000000     -0.000000     -0.000000      0.000000

     2   2 0 0    -16.189244     -8.094622     -8.094622      0.000000
     2   1 1 0      0.000000      0.000000      0.000000      0.000000
     2   1 0 1      0.000000      0.000000      0.000000      0.000000
     2   0 2 0    -16.189244     -8.094622     -8.094622      0.000000
     2   0 1 1      0.000000      0.000000      0.000000      0.000000

 Total times  cpu:        0.4s     wall:        0.6s
