 Output coordinates in a.u. (scale by  1.000000000 to convert to a.u.)

  No.       Tag          Charge          X              Y              Z
 ---- ---------------- ---------- -------------- -------------- --------------
    1 Cl                  17.0000     0.00000000     0.00000000    -0.75000000
    2 Cl                  17.0000     0.00000000     0.00000000     0.75000000

         Total SCF energy =   -910.400478226639

 Vector    8  Occ=2.000000D+00  E=-8.712037D+00  Symmetry=eg

 Vector    9  Occ=2.000000D+00  E=-8.712037D+00  Symmetry=eg

 Vector   10  Occ=2.000000D+00  E=-8.583615D+00  Symmetry=a2u

 Vector   11  Occ=2.000000D+00  E=-1.844131D+00  Symmetry=a1g

 Vector   12  Occ=2.000000D+00  E=-1.174720D+00  Symmetry=eu

 Vector   13  Occ=2.000000D+00  E=-1.174720D+00  Symmetry=eu

 Vector   14  Occ=2.000000D+00  E=-8.906912D-01  Symmetry=a2u

 Vector   15  Occ=2.000000D+00  E=-5.146153D-01  Symmetry=a1g

 Vector   16  Occ=2.000000D+00  E=-2.818055D-01  Symmetry=eg

 Vector   17  Occ=2.000000D+00  E=-2.818055D-01  Symmetry=eg

 Vector   18  Occ=0.000000D+00  E= 3.431726D-01  Symmetry=eu

 Vector   19  Occ=0.000000D+00  E= 3.431726D-01  Symmetry=eu

 Vector   20  Occ=0.000000D+00  E= 3.819852D-01  Symmetry=a2u

 Vector   21  Occ=0.000000D+00  E= 4.020073D-01  Symmetry=a1g

 Vector   22  Occ=0.000000D+00  E= 5.585824D-01  Symmetry=a1g

 Vector   23  Occ=0.000000D+00  E= 6.755082D-01  Symmetry=eg

 Vector   24  Occ=0.000000D+00  E= 6.755082D-01  Symmetry=eg

 Vector   25  Occ=0.000000D+00  E= 8.155037D-01  Symmetry=a2u

 Vector   26  Occ=0.000000D+00  E= 1.443542D+00  Symmetry=a2u

       Multipole analysis of the density wrt the origin
       ------------------------------------------------

     L   x y z        total         open         nuclear
     -   - - -        -----         ----         -------
     0   0 0 0     -0.000000      0.000000     34.000000

     1   1 0 0      0.000000      0.000000      0.000000
     1   0 1 0      0.000000      0.000000      0.000000
     1   0 0 1      0.000000      0.000000      0.000000

     2   2 0 0    -16.224293      0.000000      0.000000
     2   1 1 0      0.000000      0.000000      0.000000
     2   1 0 1     -0.000000      0.000000      0.000000
     2   0 2 0    -16.224293      0.000000      0.000000
     2   0 1 1     -0.000000      0.000000      0.000000

 Total times  cpu:        0.4s     wall:        0.8s
