 Output coordinates in angstroms (scale by  1.889725989 to convert to a.u.)

  No.       Tag          Charge          X              Y              Z
 ---- ---------------- ---------- -------------- -------------- --------------
    1 F                    9.0000     0.00000000     0.00000000     0.00000000

         Total DFT energy =      -99.134360679131

                    DFT Final Alpha Molecular Orbital Analysis
                    ------------------------------------------

 Vector    1  Occ=1.000000D+00  E=-2.477488D+01

 Vector    2  Occ=1.000000D+00  E=-1.099995D+00

 Vector    3  Occ=1.000000D+00  E=-3.546550D-01

 Vector    4  Occ=1.000000D+00  E=-2.474630D-01

 Vector    5  Occ=1.000000D+00  E=-2.474630D-01

 Vector    1  Occ=1.000000D+00  E=-2.475422D+01

 Vector    2  Occ=1.000000D+00  E=-9.978440D-01

 Vector    3  Occ=1.000000D+00  E=-2.114336D-01

 Vector    4  Occ=1.000000D+00  E=-2.114336D-01

 Vector    5  Occ=0.000000D+00  E= 1.347229D-02

 Total times  cpu:        0.1s     wall:        0.1s
