 Output coordinates in angstroms (scale by  1.889725989 to convert to a.u.)

  No.       Tag          Charge          X              Y              Z
 ---- ---------------- ---------- -------------- -------------- --------------
    1 H                    1.0000     0.00000000     0.00000000     0.00000000
    2 F                    9.0000     0.00000000     0.00000000     1.85000000

         Total DFT energy =      -98.736139132230

                       DFT Final Molecular Orbital Analysis
                       ------------------------------------

 Vector    1  Occ=2.000000D+00  E=-2.433681D+01

 Vector    2  Occ=2.000000D+00  E=-9.885518D-01

 Vector    3  Occ=2.000000D+00  E=-2.392154D-01

 Vector    4  Occ=2.000000D+00  E=-1.823448D-01

 Vector    5  Occ=2.000000D+00  E=-1.823448D-01

 Vector    6  Occ=0.000000D+00  E=-4.515758D-02

     Multipole analysis of the density
     ---------------------------------

     L   x y z        total         alpha         beta         nuclear
     -   - - -        -----         -----         ----         -------
     0   0 0 0     -0.000000     -5.000000     -5.000000     10.000000

     1   1 0 0     -0.000000     -0.000000     -0.000000      0.000000
     1   0 1 0      0.000000      0.000000      0.000000      0.000000
     1   0 0 1     -0.239328    -15.851633    -15.851633     31.463938

     2   2 0 0     -3.560327     -1.780163     -1.780163      0.000000
     2   1 1 0      0.000000      0.000000      0.000000      0.000000
     2   1 0 1      0.000000      0.000000      0.000000      0.000000
     2   0 2 0     -3.560327     -1.780163     -1.780163      0.000000
     2   0 1 1     -0.000000     -0.000000     -0.000000      0.000000

 Total times  cpu:        0.1s     wall:        0.2s
