 Output coordinates in a.u. (scale by  1.000000000 to convert to a.u.)

  No.       Tag          Charge          X              Y              Z
 ---- ---------------- ---------- -------------- -------------- --------------
    1 N                    7.0000    -0.62956930    -0.24649445     0.00000000
    2 H                    1.0000     2.50151071     0.49066975     0.00000000
    3 H                    1.0000     0.47585457     4.94071780     0.00000000
    4 H                    1.0000     1.42961981    -3.70592640     0.00000000

         Total DFT energy =      -55.164442512129

                       DFT Final Molecular Orbital Analysis
                       ------------------------------------

 Vector    1  Occ=2.000000D+00  E=-1.407883D+01  Symmetry=a'

 Vector    2  Occ=2.000000D+00  E=-6.138546D-01  Symmetry=a'

 Vector    3  Occ=2.000000D+00  E=-2.242206D-01  Symmetry=a'

 Vector    4  Occ=2.000000D+00  E=-1.804392D-01  Symmetry=a'

 Vector    5  Occ=2.000000D+00  E=-1.041784D-01  Symmetry=a"

 Vector    6  Occ=0.000000D+00  E=-1.206470D-01  Symmetry=a'

 Vector    7  Occ=0.000000D+00  E=-5.036177D-03  Symmetry=a'

 Vector    8  Occ=0.000000D+00  E= 6.922629D-02  Symmetry=a'

     Multipole analysis of the density
     ---------------------------------

     L   x y z        total         alpha         beta         nuclear
     -   - - -        -----         -----         ----         -------
     0   0 0 0     -0.000000     -5.000000     -5.000000     10.000000

     1   1 0 0      0.272248      0.136124      0.136124     -0.000000
     1   0 1 0      0.224230      0.112115      0.112115      0.000000
     1   0 0 1      0.000000      0.000000      0.000000      0.000000

     2   2 0 0     -4.950375     -8.126342     -8.126342     11.302309
     2   1 1 0     -0.076020      0.278635      0.278635     -0.633290
     2   1 0 1      0.000000      0.000000      0.000000      0.000000
     2   0 2 0     -2.414706    -20.612681    -20.612681     38.810656
     2   0 1 1      0.000000      0.000000      0.000000      0.000000

 Total times  cpu:        2.3s     wall:        3.1s
