 Output coordinates in a.u. (scale by  1.000000000 to convert to a.u.)

  No.       Tag          Charge          X              Y              Z
 ---- ---------------- ---------- -------------- -------------- --------------
    1 N                    7.0000    -0.62956930    -0.24649445     0.00000000
    2 H                    1.0000     2.50151071     0.49066975     0.00000000
    3 H                    1.0000     0.47585457     4.94071780     0.00000000
    4 H                    1.0000     1.42961981    -3.70592640     0.00000000

         Total DFT energy =      -55.977228042696

                       DFT Final Molecular Orbital Analysis
                       ------------------------------------

 Vector    1  Occ=2.000000D+00  E=-1.453105D+01  Symmetry=a'

 Vector    2  Occ=2.000000D+00  E=-7.808251D-01  Symmetry=a'

 Vector    3  Occ=2.000000D+00  E=-3.830842D-01  Symmetry=a'

 Vector    4  Occ=2.000000D+00  E=-3.344780D-01  Symmetry=a'

 Vector    5  Occ=2.000000D+00  E=-2.140072D-01  Symmetry=a'

 Vector    6  Occ=0.000000D+00  E=-2.411605D-01  Symmetry=a"

 Vector    7  Occ=0.000000D+00  E=-1.648525D-01  Symmetry=a'

 Vector    8  Occ=0.000000D+00  E=-1.242442D-01  Symmetry=a'

 Vector    9  Occ=0.000000D+00  E= 6.218766D-01  Symmetry=a'

 Vector   10  Occ=0.000000D+00  E= 6.226914D-01  Symmetry=a"

 Vector   11  Occ=0.000000D+00  E= 6.636875D-01  Symmetry=a'

 Vector   12  Occ=0.000000D+00  E= 7.636422D-01  Symmetry=a'

 Vector   13  Occ=0.000000D+00  E= 8.000784D-01  Symmetry=a'

 Vector   14  Occ=0.000000D+00  E= 8.329938D-01  Symmetry=a'

 Vector   15  Occ=0.000000D+00  E= 9.318257D-01  Symmetry=a'

     Multipole analysis of the density
     ---------------------------------

     L   x y z        total         alpha         beta         nuclear
     -   - - -        -----         -----         ----         -------
     0   0 0 0     -0.000000     -5.000000     -5.000000     10.000000

     1   1 0 0      0.299645      0.149822      0.149822     -0.000000
     1   0 1 0     -0.475466     -0.237733     -0.237733      0.000000
     1   0 0 1      0.000000      0.000000      0.000000      0.000000

     2   2 0 0     -6.479355     -8.890832     -8.890832     11.302309
     2   1 1 0      0.101563      0.367426      0.367426     -0.633290
     2   1 0 1      0.000000      0.000000      0.000000      0.000000
     2   0 2 0    -11.359693    -25.085175    -25.085175     38.810656
     2   0 1 1      0.000000      0.000000      0.000000      0.000000

 Total times  cpu:        2.0s     wall:        2.6s
