 Output coordinates in angstroms (scale by  1.889725989 to convert to a.u.)

  No.       Tag          Charge          X              Y              Z
 ---- ---------------- ---------- -------------- -------------- --------------
    1 N                    7.0000    -1.74637274     0.13869762     0.05065158
    2 H                    1.0000    -0.69875431     0.02063784    -0.02030695
    3 H                    1.0000    -2.03063841    -0.80310005     0.43624833
    4 H                    1.0000    -2.03065425     0.03711764    -0.96193811

         Total DFT energy =      -55.731850283685

                       DFT Final Molecular Orbital Analysis
                       ------------------------------------

 Vector    1  Occ=2.000000D+00  E=-1.415095D+01

 Vector    2  Occ=2.000000D+00  E=-8.258602D-01

 Vector    3  Occ=2.000000D+00  E=-3.998239D-01

 Vector    4  Occ=2.000000D+00  E=-3.998238D-01

 Vector    5  Occ=2.000000D+00  E=-1.730502D-01

 Vector    6  Occ=0.000000D+00  E= 3.783930D-01

 Vector    7  Occ=0.000000D+00  E= 4.303194D-01

 Vector    8  Occ=0.000000D+00  E= 4.303204D-01

     Multipole analysis of the density
     ---------------------------------

     L   x y z        total         alpha         beta         nuclear
     -   - - -        -----         -----         ----         -------
     0   0 0 0     -0.000000     -5.000000     -5.000000     10.000000

     1   1 0 0      0.260053     16.178200     16.178200    -32.096346
     1   0 1 0     -0.630463     -0.528335     -0.528335      0.426206
     1   0 0 1     -0.378870     -0.008554     -0.008554     -0.361761

     2   2 0 0     -6.285276    -56.858643    -56.858643    107.432009
     2   1 1 0      2.338621      1.445197      1.445197     -0.551773
     2   1 0 1      1.389298     -0.131150     -0.131150      1.651599
     2   0 2 0     -5.281238     -4.035892     -4.035892      2.790546
     2   0 1 1     -0.436204      0.384155      0.384155     -1.204514

 Total times  cpu:        0.8s     wall:        0.9s
