 Output coordinates in angstroms (scale by  1.889725989 to convert to a.u.)

  No.       Tag          Charge          X              Y              Z
 ---- ---------------- ---------- -------------- -------------- --------------
    1 N                    7.0000    -1.70773162     0.04503966    -0.00562454
    2 H                    1.0000    -0.68599120     0.05963194     0.00313757
    3 H                    1.0000    -2.05634874    -0.78791234     0.47285447
    4 H                    1.0000    -2.05635490     0.07659802    -0.96571599

         Total DFT energy =      -56.229129579878

                       DFT Final Molecular Orbital Analysis
                       ------------------------------------

 Vector    1  Occ=2.000000D+00  E=-1.420020D+01

 Vector    2  Occ=2.000000D+00  E=-8.286263D-01

 Vector    3  Occ=2.000000D+00  E=-4.467151D-01

 Vector    4  Occ=2.000000D+00  E=-4.467050D-01

 Vector    5  Occ=2.000000D+00  E=-2.086594D-01

 Vector    6  Occ=0.000000D+00  E= 1.116352D-01

 Vector    7  Occ=0.000000D+00  E= 2.041726D-01

 Vector    8  Occ=0.000000D+00  E= 2.041810D-01

 Vector    9  Occ=0.000000D+00  E= 9.285130D-01

 Vector   10  Occ=0.000000D+00  E= 9.285248D-01

 Vector   11  Occ=0.000000D+00  E= 1.000050D+00

 Vector   12  Occ=0.000000D+00  E= 1.113898D+00

 Vector   13  Occ=0.000000D+00  E= 1.253703D+00

 Vector   14  Occ=0.000000D+00  E= 1.253711D+00

 Vector   15  Occ=0.000000D+00  E= 2.265381D+00

     Multipole analysis of the density
     ---------------------------------

     L   x y z        total         alpha         beta         nuclear
     -   - - -        -----         -----         ----         -------
     0   0 0 0     -0.000000     -5.000000     -5.000000     10.000000

     1   1 0 0      0.243372     15.950802     15.950802    -31.658232
     1   0 1 0     -0.590018      0.022847      0.022847     -0.635713
     1   0 0 1     -0.354576      0.322635      0.322635     -0.999846

     2   2 0 0     -6.115295    -55.449054    -55.449054    104.782813
     2   1 1 0      2.404891     -0.374882     -0.374882      3.154654
     2   1 0 1      1.430197     -1.210750     -1.210750      3.851697
     2   0 2 0     -5.610782     -3.956040     -3.956040      2.301298
     2   0 1 1     -0.723325      0.438481      0.438481     -1.600287

 Total times  cpu:        0.6s     wall:        0.8s
