 Output coordinates in angstroms (scale by  1.889725989 to convert to a.u.)

  No.       Tag          Charge          X              Y              Z
 ---- ---------------- ---------- -------------- -------------- --------------
    1 N                    7.0000    -1.74768477     0.14188016     0.05256015
    2 H                    1.0000    -0.70042793     0.01894043    -0.02132294
    3 H                    1.0000    -2.02915002    -0.80283980     0.43414644
    4 H                    1.0000    -2.02915695     0.03537142    -0.96073315

         Total DFT energy =      -56.296025938833

                       DFT Final Molecular Orbital Analysis
                       ------------------------------------

 Vector    1  Occ=2.000000D+00  E=-1.430789D+01

 Vector    2  Occ=2.000000D+00  E=-7.861138D-01

 Vector    3  Occ=2.000000D+00  E=-3.643040D-01

 Vector    4  Occ=2.000000D+00  E=-3.643023D-01

 Vector    5  Occ=2.000000D+00  E=-1.400188D-01

 Vector    6  Occ=0.000000D+00  E= 3.307731D-01

 Vector    7  Occ=0.000000D+00  E= 3.801947D-01

 Vector    8  Occ=0.000000D+00  E= 3.801987D-01

     Multipole analysis of the density
     ---------------------------------

     L   x y z        total         alpha         beta         nuclear
     -   - - -        -----         -----         ----         -------
     0   0 0 0     -0.000000     -5.000000     -5.000000     10.000000

     1   1 0 0      0.262675     16.186949     16.186949    -32.111222
     1   0 1 0     -0.636810     -0.549550     -0.549550      0.462290
     1   0 0 1     -0.382674     -0.021273     -0.021273     -0.340129

     2   2 0 0     -6.286021    -56.898851    -56.898851    107.511681
     2   1 1 0      2.359132      1.521836      1.521836     -0.684540
     2   1 0 1      1.401425     -0.085735     -0.085735      1.572894
     2   0 2 0     -5.265739     -4.038211     -4.038211      2.810683
     2   0 1 1     -0.436157      0.372461      0.372461     -1.181078

 Total times  cpu:        1.2s     wall:        1.5s
