         Total DFT energy =      -76.384916440376

 Vector    1  Occ=2.000000D+00  E=-1.913298D+01  Symmetry=a1

 Vector    2  Occ=2.000000D+00  E=-1.019292D+00  Symmetry=a1

 Vector    3  Occ=2.000000D+00  E=-5.309647D-01  Symmetry=b1

 Vector    4  Occ=2.000000D+00  E=-3.564451D-01  Symmetry=a1

 Vector    5  Occ=2.000000D+00  E=-2.923535D-01  Symmetry=b2

 Vector    6  Occ=0.000000D+00  E= 5.756231D-02  Symmetry=a1

 Vector    7  Occ=0.000000D+00  E= 1.477271D-01  Symmetry=b1

 Vector    8  Occ=0.000000D+00  E= 8.121456D-01  Symmetry=b1

 Vector    9  Occ=0.000000D+00  E= 8.789361D-01  Symmetry=a1

 Vector   10  Occ=0.000000D+00  E= 8.891924D-01  Symmetry=b2

 Vector   11  Occ=0.000000D+00  E= 9.577265D-01  Symmetry=a1

 Vector   12  Occ=0.000000D+00  E= 1.069177D+00  Symmetry=b1

 Vector   13  Occ=0.000000D+00  E= 1.422959D+00  Symmetry=a1

@ Step       Energy      Delta E   Gmax     Grms     Xrms     Xmax   Walltime
@ ---- ---------------- -------- -------- -------- -------- -------- --------
@    0     -76.38491644  0.0D+00  0.02159  0.01150  0.00000  0.00000      0.4
         Total DFT energy =      -76.386113486986

 Vector    1  Occ=2.000000D+00  E=-1.913396D+01  Symmetry=a1

 Vector    2  Occ=2.000000D+00  E=-1.005987D+00  Symmetry=a1

 Vector    3  Occ=2.000000D+00  E=-5.286444D-01  Symmetry=b1

 Vector    4  Occ=2.000000D+00  E=-3.489469D-01  Symmetry=a1

 Vector    5  Occ=2.000000D+00  E=-2.896035D-01  Symmetry=b2

 Vector    6  Occ=0.000000D+00  E= 5.236160D-02  Symmetry=a1

 Vector    7  Occ=0.000000D+00  E= 1.418381D-01  Symmetry=b1

 Vector    8  Occ=0.000000D+00  E= 8.203437D-01  Symmetry=b1

 Vector    9  Occ=0.000000D+00  E= 8.501274D-01  Symmetry=a1

 Vector   10  Occ=0.000000D+00  E= 8.904698D-01  Symmetry=b2

 Vector   11  Occ=0.000000D+00  E= 9.451939D-01  Symmetry=a1

 Vector   12  Occ=0.000000D+00  E= 1.070729D+00  Symmetry=b1

 Vector   13  Occ=0.000000D+00  E= 1.409097D+00  Symmetry=a1

         Total DFT energy =    -76.386113486986
@    1     -76.38611349 -1.2D-03  0.00166  0.00078  0.03112  0.06468      0.8
         Total DFT energy =      -76.386117275211

 Vector    1  Occ=2.000000D+00  E=-1.913357D+01  Symmetry=a1

 Vector    2  Occ=2.000000D+00  E=-1.006365D+00  Symmetry=a1

 Vector    3  Occ=2.000000D+00  E=-5.294853D-01  Symmetry=b1

 Vector    4  Occ=2.000000D+00  E=-3.485683D-01  Symmetry=a1

 Vector    5  Occ=2.000000D+00  E=-2.896014D-01  Symmetry=b2

 Vector    6  Occ=0.000000D+00  E= 5.279034D-02  Symmetry=a1

 Vector    7  Occ=0.000000D+00  E= 1.423961D-01  Symmetry=b1

 Vector    8  Occ=0.000000D+00  E= 8.220064D-01  Symmetry=b1

 Vector    9  Occ=0.000000D+00  E= 8.509994D-01  Symmetry=a1

 Vector   10  Occ=0.000000D+00  E= 8.905287D-01  Symmetry=b2

 Vector   11  Occ=0.000000D+00  E= 9.446175D-01  Symmetry=a1

 Vector   12  Occ=0.000000D+00  E= 1.071195D+00  Symmetry=b1

 Vector   13  Occ=0.000000D+00  E= 1.408681D+00  Symmetry=a1

         Total DFT energy =    -76.386117275211
@    2     -76.38611728 -3.8D-06  0.00007  0.00004  0.00114  0.00279      1.1
         Total DFT energy =      -76.386117287424

                       DFT Final Molecular Orbital Analysis
                       ------------------------------------

 Vector    1  Occ=2.000000D+00  E=-1.913354D+01  Symmetry=a1

 Vector    2  Occ=2.000000D+00  E=-1.006403D+00  Symmetry=a1

 Vector    3  Occ=2.000000D+00  E=-5.295080D-01  Symmetry=b1

 Vector    4  Occ=2.000000D+00  E=-3.485745D-01  Symmetry=a1

 Vector    5  Occ=2.000000D+00  E=-2.896029D-01  Symmetry=b2

 Vector    6  Occ=0.000000D+00  E= 5.281584D-02  Symmetry=a1

 Vector    7  Occ=0.000000D+00  E= 1.424252D-01  Symmetry=b1

 Vector    8  Occ=0.000000D+00  E= 8.220227D-01  Symmetry=b1

 Vector    9  Occ=0.000000D+00  E= 8.511041D-01  Symmetry=a1

 Vector   10  Occ=0.000000D+00  E= 8.905313D-01  Symmetry=b2

 Vector   11  Occ=0.000000D+00  E= 9.446313D-01  Symmetry=a1

 Vector   12  Occ=0.000000D+00  E= 1.071200D+00  Symmetry=b1

 Vector   13  Occ=0.000000D+00  E= 1.408712D+00  Symmetry=a1

     Multipole analysis of the density
     ---------------------------------

     L   x y z        total         alpha         beta         nuclear
     -   - - -        -----         -----         ----         -------
     0   0 0 0     -0.000000     -5.000000     -5.000000     10.000000

     1   1 0 0     -0.000000     -0.000000     -0.000000      0.000000
     1   0 1 0      0.000000      0.000000      0.000000      0.000000
     1   0 0 1     -0.943685     -0.408528     -0.408528     -0.126629

     2   2 0 0     -3.059746     -3.764157     -3.764157      4.468568
     2   1 1 0      0.000000      0.000000      0.000000      0.000000
     2   1 0 1      0.000000      0.000000      0.000000      0.000000
     2   0 2 0     -5.354265     -2.677132     -2.677132      0.000000
     2   0 1 1     -0.000000     -0.000000     -0.000000      0.000000

         Total DFT energy =    -76.386117287424
@    3     -76.38611729 -1.2D-08  0.00000  0.00000  0.00008  0.00018      1.3
@    3     -76.38611729 -1.2D-08  0.00000  0.00000  0.00008  0.00018      1.3

 Output coordinates in a.u. (scale by  1.000000000 to convert to a.u.)

  No.       Tag          Charge          X              Y              Z
 ---- ---------------- ---------- -------------- -------------- --------------
    1 O                    8.0000     0.00000000     0.00000000     0.20334070
    2 H                    1.0000    -1.49475210     0.00000000    -0.87667721
    3 H                    1.0000     1.49475210     0.00000000    -0.87667721

 Total times  cpu:        0.7s     wall:        1.3s
