         Total DFT energy =      -76.384916440376

 Vector    1  Occ=2.000000D+00  E=-1.913298D+01  Symmetry=a1

 Vector    2  Occ=2.000000D+00  E=-1.019292D+00  Symmetry=a1

 Vector    3  Occ=2.000000D+00  E=-5.309647D-01  Symmetry=b1

 Vector    4  Occ=2.000000D+00  E=-3.564451D-01  Symmetry=a1

 Vector    5  Occ=2.000000D+00  E=-2.923535D-01  Symmetry=b2

 Vector    6  Occ=0.000000D+00  E= 5.756231D-02  Symmetry=a1

 Vector    7  Occ=0.000000D+00  E= 1.477271D-01  Symmetry=b1

 Vector    8  Occ=0.000000D+00  E= 8.121456D-01  Symmetry=b1

 Vector    9  Occ=0.000000D+00  E= 8.789361D-01  Symmetry=a1

 Vector   10  Occ=0.000000D+00  E= 8.891924D-01  Symmetry=b2

 Vector   11  Occ=0.000000D+00  E= 9.577265D-01  Symmetry=a1

 Vector   12  Occ=0.000000D+00  E= 1.069177D+00  Symmetry=b1

 Vector   13  Occ=0.000000D+00  E= 1.422959D+00  Symmetry=a1

@ Step       Energy      Delta E   Gmax     Grms     Xrms     Xmax   Walltime
@ ---- ---------------- -------- -------- -------- -------- -------- --------
@    0     -76.38491644  0.0D+00  0.02159  0.01150  0.00000  0.00000      0.6
         Total DFT energy =      -76.385888141751

 Vector    1  Occ=2.000000D+00  E=-1.913159D+01  Symmetry=a1

 Vector    2  Occ=2.000000D+00  E=-1.002491D+00  Symmetry=a1

 Vector    3  Occ=2.000000D+00  E=-5.331403D-01  Symmetry=b1

 Vector    4  Occ=2.000000D+00  E=-3.427512D-01  Symmetry=a1

 Vector    5  Occ=2.000000D+00  E=-2.882442D-01  Symmetry=b2

 Vector    6  Occ=0.000000D+00  E= 5.251084D-02  Symmetry=a1

 Vector    7  Occ=0.000000D+00  E= 1.429901D-01  Symmetry=b1

 Vector    8  Occ=0.000000D+00  E= 8.358935D-01  Symmetry=b1

 Vector    9  Occ=0.000000D+00  E= 8.403486D-01  Symmetry=a1

 Vector   10  Occ=0.000000D+00  E= 8.915306D-01  Symmetry=b2

 Vector   11  Occ=0.000000D+00  E= 9.377176D-01  Symmetry=a1

 Vector   12  Occ=0.000000D+00  E= 1.076298D+00  Symmetry=b1

 Vector   13  Occ=0.000000D+00  E= 1.400066D+00  Symmetry=a1

         Total DFT energy =      -76.386066681753

 Vector    1  Occ=2.000000D+00  E=-1.913197D+01  Symmetry=a1

 Vector    2  Occ=2.000000D+00  E=-1.007225D+00  Symmetry=a1

 Vector    3  Occ=2.000000D+00  E=-5.328853D-01  Symmetry=b1

 Vector    4  Occ=2.000000D+00  E=-3.465616D-01  Symmetry=a1

 Vector    5  Occ=2.000000D+00  E=-2.894403D-01  Symmetry=b2

 Vector    6  Occ=0.000000D+00  E= 5.426957D-02  Symmetry=a1

 Vector    7  Occ=0.000000D+00  E= 1.443950D-01  Symmetry=b1

 Vector    8  Occ=0.000000D+00  E= 8.296348D-01  Symmetry=b1

 Vector    9  Occ=0.000000D+00  E= 8.528136D-01  Symmetry=a1

 Vector   10  Occ=0.000000D+00  E= 8.908505D-01  Symmetry=b2

 Vector   11  Occ=0.000000D+00  E= 9.416867D-01  Symmetry=a1

 Vector   12  Occ=0.000000D+00  E= 1.073386D+00  Symmetry=b1

 Vector   13  Occ=0.000000D+00  E= 1.406228D+00  Symmetry=a1

@    1     -76.38606668 -1.2D-03  0.00596  0.00262  0.03411  0.06729      1.1
         Total DFT energy =      -76.386098726841

 Vector    1  Occ=2.000000D+00  E=-1.913452D+01  Symmetry=a1

 Vector    2  Occ=2.000000D+00  E=-1.006060D+00  Symmetry=a1

 Vector    3  Occ=2.000000D+00  E=-5.274660D-01  Symmetry=b1

 Vector    4  Occ=2.000000D+00  E=-3.499257D-01  Symmetry=a1

 Vector    5  Occ=2.000000D+00  E=-2.897508D-01  Symmetry=b2

 Vector    6  Occ=0.000000D+00  E= 5.198231D-02  Symmetry=a1

 Vector    7  Occ=0.000000D+00  E= 1.412602D-01  Symmetry=b1

 Vector    8  Occ=0.000000D+00  E= 8.173933D-01  Symmetry=b1

 Vector    9  Occ=0.000000D+00  E= 8.503375D-01  Symmetry=a1

 Vector   10  Occ=0.000000D+00  E= 8.903088D-01  Symmetry=b2

 Vector   11  Occ=0.000000D+00  E= 9.465427D-01  Symmetry=a1

 Vector   12  Occ=0.000000D+00  E= 1.069812D+00  Symmetry=b1

 Vector   13  Occ=0.000000D+00  E= 1.410473D+00  Symmetry=a1

         Total DFT energy =      -76.386117201879

 Vector    1  Occ=2.000000D+00  E=-1.913356D+01  Symmetry=a1

 Vector    2  Occ=2.000000D+00  E=-1.006513D+00  Symmetry=a1

 Vector    3  Occ=2.000000D+00  E=-5.295094D-01  Symmetry=b1

 Vector    4  Occ=2.000000D+00  E=-3.486592D-01  Symmetry=a1

 Vector    5  Occ=2.000000D+00  E=-2.896342D-01  Symmetry=b2

 Vector    6  Occ=0.000000D+00  E= 5.285307D-02  Symmetry=a1

 Vector    7  Occ=0.000000D+00  E= 1.424587D-01  Symmetry=b1

 Vector    8  Occ=0.000000D+00  E= 8.219027D-01  Symmetry=b1

 Vector    9  Occ=0.000000D+00  E= 8.513574D-01  Symmetry=a1

 Vector   10  Occ=0.000000D+00  E= 8.905124D-01  Symmetry=b2

 Vector   11  Occ=0.000000D+00  E= 9.447239D-01  Symmetry=a1

 Vector   12  Occ=0.000000D+00  E= 1.071148D+00  Symmetry=b1

 Vector   13  Occ=0.000000D+00  E= 1.408845D+00  Symmetry=a1

@    2     -76.38611720 -5.1D-05  0.00017  0.00008  0.00552  0.01289      1.6
         Total DFT energy =      -76.386117287300

                       DFT Final Molecular Orbital Analysis
                       ------------------------------------

 Vector    1  Occ=2.000000D+00  E=-1.913355D+01  Symmetry=a1

 Vector    2  Occ=2.000000D+00  E=-1.006409D+00  Symmetry=a1

 Vector    3  Occ=2.000000D+00  E=-5.295128D-01  Symmetry=b1

 Vector    4  Occ=2.000000D+00  E=-3.485797D-01  Symmetry=a1

 Vector    5  Occ=2.000000D+00  E=-2.896088D-01  Symmetry=b2

 Vector    6  Occ=0.000000D+00  E= 5.281600D-02  Symmetry=a1

 Vector    7  Occ=0.000000D+00  E= 1.424251D-01  Symmetry=b1

 Vector    8  Occ=0.000000D+00  E= 8.220252D-01  Symmetry=b1

 Vector    9  Occ=0.000000D+00  E= 8.511057D-01  Symmetry=a1

 Vector   10  Occ=0.000000D+00  E= 8.905266D-01  Symmetry=b2

 Vector   11  Occ=0.000000D+00  E= 9.446274D-01  Symmetry=a1

 Vector   12  Occ=0.000000D+00  E= 1.071196D+00  Symmetry=b1

 Vector   13  Occ=0.000000D+00  E= 1.408709D+00  Symmetry=a1

     Multipole analysis of the density
     ---------------------------------

     L   x y z        total         alpha         beta         nuclear
     -   - - -        -----         -----         ----         -------
     0   0 0 0     -0.000000     -5.000000     -5.000000     10.000000

     1   1 0 0     -0.000000     -0.000000     -0.000000      0.000000
     1   0 1 0     -0.000000     -0.000000     -0.000000      0.000000
     1   0 0 1     -0.943704     -0.408522     -0.408522     -0.126659

     2   2 0 0     -3.059684     -3.764115     -3.764115      4.468546
     2   1 1 0     -0.000000     -0.000000     -0.000000      0.000000
     2   1 0 1      0.000000      0.000000      0.000000      0.000000
     2   0 2 0     -5.354230     -2.677115     -2.677115      0.000000
     2   0 1 1      0.000000      0.000000      0.000000      0.000000

         Total DFT energy =    -76.386117287300
@    3     -76.38611729 -8.5D-08  0.00000  0.00000  0.00029  0.00057      1.8
@    3     -76.38611729 -8.5D-08  0.00000  0.00000  0.00029  0.00057      1.8

 Output coordinates in a.u. (scale by  1.000000000 to convert to a.u.)

  No.       Tag          Charge          X              Y              Z
 ---- ---------------- ---------- -------------- -------------- --------------
    1 O                    8.0000     0.00000000     0.00000000     0.20333634
    2 H                    1.0000    -1.49474847     0.00000000    -0.87667503
    3 H                    1.0000     1.49474847     0.00000000    -0.87667503

 Total times  cpu:        1.1s     wall:        1.9s
